Program Version,EnergyPlus-Windows-64 8.1.0.008, YMD=2014.05.18 07:35
1,5,Environment Title[],Latitude[deg],Longitude[deg],Time Zone[],Elevation[m]
2,6,Day of Simulation[],Month[],Day of Month[],DST Indicator[1=yes 0=no],Hour[],StartMinute[],EndMinute[],DayType
3,3,Cumulative Day of Simulation[],Month[],Day of Month[],DST Indicator[1=yes 0=no],DayType  ! When Daily Report Variables Requested
4,2,Cumulative Days of Simulation[],Month[]  ! When Monthly Report Variables Requested
5,1,Cumulative Days of Simulation[] ! When Run Period Report Variables Requested
738,9,0_0,Zone Mean Radiant Temperature [C] !Monthly [Value,Min,Day,Hour,Minute,Max,Day,Hour,Minute]
739,9,1_0,Zone Mean Radiant Temperature [C] !Monthly [Value,Min,Day,Hour,Minute,Max,Day,Hour,Minute]
740,9,2_0,Zone Mean Radiant Temperature [C] !Monthly [Value,Min,Day,Hour,Minute,Max,Day,Hour,Minute]
741,9,3_0,Zone Mean Radiant Temperature [C] !Monthly [Value,Min,Day,Hour,Minute,Max,Day,Hour,Minute]
742,9,4_0,Zone Mean Radiant Temperature [C] !Monthly [Value,Min,Day,Hour,Minute,Max,Day,Hour,Minute]
743,9,5_0,Zone Mean Radiant Temperature [C] !Monthly [Value,Min,Day,Hour,Minute,Max,Day,Hour,Minute]
744,9,6_0,Zone Mean Radiant Temperature [C] !Monthly [Value,Min,Day,Hour,Minute,Max,Day,Hour,Minute]
745,9,7_0,Zone Mean Radiant Temperature [C] !Monthly [Value,Min,Day,Hour,Minute,Max,Day,Hour,Minute]
746,9,8_0,Zone Mean Radiant Temperature [C] !Monthly [Value,Min,Day,Hour,Minute,Max,Day,Hour,Minute]
747,9,9_0,Zone Mean Radiant Temperature [C] !Monthly [Value,Min,Day,Hour,Minute,Max,Day,Hour,Minute]
748,9,10_0,Zone Mean Radiant Temperature [C] !Monthly [Value,Min,Day,Hour,Minute,Max,Day,Hour,Minute]
749,9,11_0,Zone Mean Radiant Temperature [C] !Monthly [Value,Min,Day,Hour,Minute,Max,Day,Hour,Minute]
750,9,12_0,Zone Mean Radiant Temperature [C] !Monthly [Value,Min,Day,Hour,Minute,Max,Day,Hour,Minute]
751,9,13_0,Zone Mean Radiant Temperature [C] !Monthly [Value,Min,Day,Hour,Minute,Max,Day,Hour,Minute]
752,9,14_0,Zone Mean Radiant Temperature [C] !Monthly [Value,Min,Day,Hour,Minute,Max,Day,Hour,Minute]
753,9,15_0,Zone Mean Radiant Temperature [C] !Monthly [Value,Min,Day,Hour,Minute,Max,Day,Hour,Minute]
754,9,16_0,Zone Mean Radiant Temperature [C] !Monthly [Value,Min,Day,Hour,Minute,Max,Day,Hour,Minute]
755,9,17_0,Zone Mean Radiant Temperature [C] !Monthly [Value,Min,Day,Hour,Minute,Max,Day,Hour,Minute]
756,9,18_0,Zone Mean Radiant Temperature [C] !Monthly [Value,Min,Day,Hour,Minute,Max,Day,Hour,Minute]
757,9,19_0,Zone Mean Radiant Temperature [C] !Monthly [Value,Min,Day,Hour,Minute,Max,Day,Hour,Minute]
758,9,20_0,Zone Mean Radiant Temperature [C] !Monthly [Value,Min,Day,Hour,Minute,Max,Day,Hour,Minute]
759,9,0_0,Zone Mean Air Temperature [C] !Monthly [Value,Min,Day,Hour,Minute,Max,Day,Hour,Minute]
760,9,1_0,Zone Mean Air Temperature [C] !Monthly [Value,Min,Day,Hour,Minute,Max,Day,Hour,Minute]
761,9,2_0,Zone Mean Air Temperature [C] !Monthly [Value,Min,Day,Hour,Minute,Max,Day,Hour,Minute]
762,9,3_0,Zone Mean Air Temperature [C] !Monthly [Value,Min,Day,Hour,Minute,Max,Day,Hour,Minute]
763,9,4_0,Zone Mean Air Temperature [C] !Monthly [Value,Min,Day,Hour,Minute,Max,Day,Hour,Minute]
764,9,5_0,Zone Mean Air Temperature [C] !Monthly [Value,Min,Day,Hour,Minute,Max,Day,Hour,Minute]
765,9,6_0,Zone Mean Air Temperature [C] !Monthly [Value,Min,Day,Hour,Minute,Max,Day,Hour,Minute]
766,9,7_0,Zone Mean Air Temperature [C] !Monthly [Value,Min,Day,Hour,Minute,Max,Day,Hour,Minute]
767,9,8_0,Zone Mean Air Temperature [C] !Monthly [Value,Min,Day,Hour,Minute,Max,Day,Hour,Minute]
768,9,9_0,Zone Mean Air Temperature [C] !Monthly [Value,Min,Day,Hour,Minute,Max,Day,Hour,Minute]
769,9,10_0,Zone Mean Air Temperature [C] !Monthly [Value,Min,Day,Hour,Minute,Max,Day,Hour,Minute]
770,9,11_0,Zone Mean Air Temperature [C] !Monthly [Value,Min,Day,Hour,Minute,Max,Day,Hour,Minute]
771,9,12_0,Zone Mean Air Temperature [C] !Monthly [Value,Min,Day,Hour,Minute,Max,Day,Hour,Minute]
772,9,13_0,Zone Mean Air Temperature [C] !Monthly [Value,Min,Day,Hour,Minute,Max,Day,Hour,Minute]
773,9,14_0,Zone Mean Air Temperature [C] !Monthly [Value,Min,Day,Hour,Minute,Max,Day,Hour,Minute]
774,9,15_0,Zone Mean Air Temperature [C] !Monthly [Value,Min,Day,Hour,Minute,Max,Day,Hour,Minute]
775,9,16_0,Zone Mean Air Temperature [C] !Monthly [Value,Min,Day,Hour,Minute,Max,Day,Hour,Minute]
776,9,17_0,Zone Mean Air Temperature [C] !Monthly [Value,Min,Day,Hour,Minute,Max,Day,Hour,Minute]
777,9,18_0,Zone Mean Air Temperature [C] !Monthly [Value,Min,Day,Hour,Minute,Max,Day,Hour,Minute]
778,9,19_0,Zone Mean Air Temperature [C] !Monthly [Value,Min,Day,Hour,Minute,Max,Day,Hour,Minute]
779,9,20_0,Zone Mean Air Temperature [C] !Monthly [Value,Min,Day,Hour,Minute,Max,Day,Hour,Minute]
814,9,Heating:EnergyTransfer [J] !Monthly  [Value,Min,Day,Hour,Minute,Max,Day,Hour,Minute]
824,9,Heating:EnergyTransfer:Zone:0_0 [J] !Monthly  [Value,Min,Day,Hour,Minute,Max,Day,Hour,Minute]
866,9,Heating:EnergyTransfer:Zone:1_0 [J] !Monthly  [Value,Min,Day,Hour,Minute,Max,Day,Hour,Minute]
898,9,Heating:EnergyTransfer:Zone:2_0 [J] !Monthly  [Value,Min,Day,Hour,Minute,Max,Day,Hour,Minute]
930,9,Heating:EnergyTransfer:Zone:3_0 [J] !Monthly  [Value,Min,Day,Hour,Minute,Max,Day,Hour,Minute]
962,9,Heating:EnergyTransfer:Zone:4_0 [J] !Monthly  [Value,Min,Day,Hour,Minute,Max,Day,Hour,Minute]
994,9,Heating:EnergyTransfer:Zone:5_0 [J] !Monthly  [Value,Min,Day,Hour,Minute,Max,Day,Hour,Minute]
1026,9,Heating:EnergyTransfer:Zone:6_0 [J] !Monthly  [Value,Min,Day,Hour,Minute,Max,Day,Hour,Minute]
1058,9,Heating:EnergyTransfer:Zone:7_0 [J] !Monthly  [Value,Min,Day,Hour,Minute,Max,Day,Hour,Minute]
1090,9,Heating:EnergyTransfer:Zone:8_0 [J] !Monthly  [Value,Min,Day,Hour,Minute,Max,Day,Hour,Minute]
1122,9,Heating:EnergyTransfer:Zone:9_0 [J] !Monthly  [Value,Min,Day,Hour,Minute,Max,Day,Hour,Minute]
1154,9,Heating:EnergyTransfer:Zone:10_0 [J] !Monthly  [Value,Min,Day,Hour,Minute,Max,Day,Hour,Minute]
1186,9,Heating:EnergyTransfer:Zone:11_0 [J] !Monthly  [Value,Min,Day,Hour,Minute,Max,Day,Hour,Minute]
1218,9,Heating:EnergyTransfer:Zone:12_0 [J] !Monthly  [Value,Min,Day,Hour,Minute,Max,Day,Hour,Minute]
1250,9,Heating:EnergyTransfer:Zone:13_0 [J] !Monthly  [Value,Min,Day,Hour,Minute,Max,Day,Hour,Minute]
1282,9,Heating:EnergyTransfer:Zone:14_0 [J] !Monthly  [Value,Min,Day,Hour,Minute,Max,Day,Hour,Minute]
1314,9,Heating:EnergyTransfer:Zone:15_0 [J] !Monthly  [Value,Min,Day,Hour,Minute,Max,Day,Hour,Minute]
1346,9,Heating:EnergyTransfer:Zone:16_0 [J] !Monthly  [Value,Min,Day,Hour,Minute,Max,Day,Hour,Minute]
1378,9,Heating:EnergyTransfer:Zone:17_0 [J] !Monthly  [Value,Min,Day,Hour,Minute,Max,Day,Hour,Minute]
1410,9,Heating:EnergyTransfer:Zone:18_0 [J] !Monthly  [Value,Min,Day,Hour,Minute,Max,Day,Hour,Minute]
1442,9,Heating:EnergyTransfer:Zone:19_0 [J] !Monthly  [Value,Min,Day,Hour,Minute,Max,Day,Hour,Minute]
1474,9,Heating:EnergyTransfer:Zone:20_0 [J] !Monthly  [Value,Min,Day,Hour,Minute,Max,Day,Hour,Minute]
1516,9,Heating:DistrictHeating [J] !Monthly  [Value,Min,Day,Hour,Minute,Max,Day,Hour,Minute]
835,9,Cooling:EnergyTransfer [J] !Monthly  [Value,Min,Day,Hour,Minute,Max,Day,Hour,Minute]
845,9,Cooling:EnergyTransfer:Zone:0_0 [J] !Monthly  [Value,Min,Day,Hour,Minute,Max,Day,Hour,Minute]
877,9,Cooling:EnergyTransfer:Zone:1_0 [J] !Monthly  [Value,Min,Day,Hour,Minute,Max,Day,Hour,Minute]
909,9,Cooling:EnergyTransfer:Zone:2_0 [J] !Monthly  [Value,Min,Day,Hour,Minute,Max,Day,Hour,Minute]
941,9,Cooling:EnergyTransfer:Zone:3_0 [J] !Monthly  [Value,Min,Day,Hour,Minute,Max,Day,Hour,Minute]
973,9,Cooling:EnergyTransfer:Zone:4_0 [J] !Monthly  [Value,Min,Day,Hour,Minute,Max,Day,Hour,Minute]
1005,9,Cooling:EnergyTransfer:Zone:5_0 [J] !Monthly  [Value,Min,Day,Hour,Minute,Max,Day,Hour,Minute]
1037,9,Cooling:EnergyTransfer:Zone:6_0 [J] !Monthly  [Value,Min,Day,Hour,Minute,Max,Day,Hour,Minute]
1069,9,Cooling:EnergyTransfer:Zone:7_0 [J] !Monthly  [Value,Min,Day,Hour,Minute,Max,Day,Hour,Minute]
1101,9,Cooling:EnergyTransfer:Zone:8_0 [J] !Monthly  [Value,Min,Day,Hour,Minute,Max,Day,Hour,Minute]
1133,9,Cooling:EnergyTransfer:Zone:9_0 [J] !Monthly  [Value,Min,Day,Hour,Minute,Max,Day,Hour,Minute]
1165,9,Cooling:EnergyTransfer:Zone:10_0 [J] !Monthly  [Value,Min,Day,Hour,Minute,Max,Day,Hour,Minute]
1197,9,Cooling:EnergyTransfer:Zone:11_0 [J] !Monthly  [Value,Min,Day,Hour,Minute,Max,Day,Hour,Minute]
1229,9,Cooling:EnergyTransfer:Zone:12_0 [J] !Monthly  [Value,Min,Day,Hour,Minute,Max,Day,Hour,Minute]
1261,9,Cooling:EnergyTransfer:Zone:13_0 [J] !Monthly  [Value,Min,Day,Hour,Minute,Max,Day,Hour,Minute]
1293,9,Cooling:EnergyTransfer:Zone:14_0 [J] !Monthly  [Value,Min,Day,Hour,Minute,Max,Day,Hour,Minute]
1325,9,Cooling:EnergyTransfer:Zone:15_0 [J] !Monthly  [Value,Min,Day,Hour,Minute,Max,Day,Hour,Minute]
1357,9,Cooling:EnergyTransfer:Zone:16_0 [J] !Monthly  [Value,Min,Day,Hour,Minute,Max,Day,Hour,Minute]
1389,9,Cooling:EnergyTransfer:Zone:17_0 [J] !Monthly  [Value,Min,Day,Hour,Minute,Max,Day,Hour,Minute]
1421,9,Cooling:EnergyTransfer:Zone:18_0 [J] !Monthly  [Value,Min,Day,Hour,Minute,Max,Day,Hour,Minute]
1453,9,Cooling:EnergyTransfer:Zone:19_0 [J] !Monthly  [Value,Min,Day,Hour,Minute,Max,Day,Hour,Minute]
1485,9,Cooling:EnergyTransfer:Zone:20_0 [J] !Monthly  [Value,Min,Day,Hour,Minute,Max,Day,Hour,Minute]
1547,9,Cooling:DistrictCooling [J] !Monthly  [Value,Min,Day,Hour,Minute,Max,Day,Hour,Minute]
End of Data Dictionary
1,CUSTOMRUN,  40.65, -73.80,  -5.00,   5.00
4,31, 1
738,14.2408021516494,9.33843556598077, 2, 7,10,19.5834920485134,19,11,10
739,17.8556697045711,14.1758712462854,16, 7,10,20.4055282242933,19,16,40
740,15.7722895567652,10.8893395403768, 2, 7,10,24.8523226896709,19,11,10
741,15.0471227394525,10.5551954643522, 2, 6,60,19.0186995644944,19,14,10
742,15.135256487723,10.6695575947322, 2, 6,60,19.058052194121,17,17,30
743,16.9323240801733,12.94042746473,15, 8,30,20.3661105516925,17,21,20
744,18.2049417696848,14.3556454187236,16, 7,10,21.0761452344379,19,18,10
745,15.8126335555124,11.1408706358417, 2, 7,10,23.5081406422572,19,11,10
746,15.1049895712365,10.795206064175, 2, 7,10,18.7380074389302,19,14,60
747,15.1779294827479,10.8854623079674, 2, 7,10,18.7753701214908,17,17,30
748,17.0471259701022,13.090388877057,15,10,20,20.3731494363939,17,21,20
749,18.2753008280755,14.3622137147704,16, 7,10,21.3314153418029,19,18,10
750,15.8250636640021,11.1450589991428, 2, 7,10,23.6347795518203,19,11,10
751,15.1088957437774,10.8095599140589, 2, 7,10,18.717835619838,19,14,60
752,15.1734706276376,10.8843670356692, 2, 7,10,18.8016464401326,17,17,30
753,17.0561940186783,13.1198051346173,15,10,30,20.3866462493618,17,21,20
754,17.0028767483291,13.4034916807689,16, 7,10,20.5610409528601,24,18,10
755,15.2552913638834,10.3992786286566, 2, 7,10,23.0340514016567,19,11,20
756,14.6257112250564,10.108698430302, 2, 7,10,18.3508762718655,24,13,60
757,14.6747547995289,10.1641367213056, 2, 7,10,18.3526686542187,24,13,60
758,16.3893974263929,12.6546619198028, 2, 7,10,19.6414038705853,17,22,30
759,18.6563022135487,15.5999999999999,14,24,50,21.5593239928257,24, 7,10
760,19.1312281292233,15.6, 8,14,40,22.1540451150212,17, 7,10
761,18.7892130995712,15.5999999999999,14, 1,30,24.,27,11,50
762,18.6602037081485,15.5999999999999, 4, 1,50,21.3748198248477,24, 7,10
763,18.6635516064703,15.5999999999999,14, 6,40,21.3930920363061,24, 7,10
764,18.9188804124131,15.6,15, 3,30,21.8906755916264,21, 7,10
765,19.4188273978884,15.6,16, 3,20,22.891759313827,19,17,60
766,18.7544223024307,15.5999999999999, 5, 4,10,24.,19,11,60
767,18.6671817405718,15.5999999999999, 8,18,10,21.5634697761259,24, 7,10
768,18.6706835826602,15.5999999999999, 8, 6,40,21.6021562229232,24, 7,10
769,18.9853678879642,15.6,15, 6,50,21.7805410281914,21, 7,10
770,19.6129019623778,15.6, 8,22,60,23.6163608063732,19,17,60
771,18.7669291592612,15.5999999999999,15, 9,40,24.,19,11,60
772,18.669460240868,15.5999999999999,19, 4,30,21.692596188543,24, 7,10
773,18.6725360016685,15.5999999999999,14, 5,60,21.6730384075052,24, 7,10
774,18.9951497948104,15.6, 8,23,30,21.8217765823416,21, 7,10
775,19.052731447401,15.6, 8, 6,20,23.1959662002628,24,17,60
776,18.7116784524942,15.5999999999999, 5, 2,10,23.9999999999998,19,11,50
777,18.6584761102107,15.5999999999999, 6, 4,50,21.5004650776489,24, 7,10
778,18.6600312845116,15.5999999999999, 7, 4,10,21.514324630896,24, 7,10
779,18.8434585915253,15.5999999999999,10, 6,10,21.7481149221389,20, 7,10
814,35958521110.9191,0.0, 2,23,10,46700727.2699271, 2, 7,10
824,2933957021.22797,0.0, 2,23,10,2812382.3382773, 2, 7,10
835,15497495.2703957,0.0, 1, 1,10,783078.307788121,19,11,20
845,0.0,0.0, 1, 1,10,0.0, 1, 1,10
866,331036703.345752,0.0, 1, 1,10,858262.700432905,16, 7,10
877,0.0,0.0, 1, 1,10,0.0, 1, 1,10
898,1195823155.30175,0.0, 1,10,10,1383792.25100518, 2, 7,10
909,11529215.304053,0.0, 1, 1,10,330640.741711429,19,10,60
930,1507503132.29113,0.0, 2,23,10,1442188.56211935, 2, 7,10
941,0.0,0.0, 1, 1,10,0.0, 1, 1,10
962,1466568550.4726,0.0, 1,23,10,1422773.82023734, 2, 7,10
973,0.0,0.0, 1, 1,10,0.0, 1, 1,10
994,650615254.636391,0.0, 1,23,10,1010970.52703197, 2, 7,10
1005,0.0,0.0, 1, 1,10,0.0, 1, 1,10
1026,398915763.111435,0.0, 1, 1,10,1908781.1307247,16, 7,10
1037,0.0,0.0, 1, 1,10,0.0, 1, 1,10
1058,1506068544.12645,0.0, 1,23,10,1804532.49623555, 2, 7,10
1069,1126027.66690999,0.0, 1, 1,10,135564.415477592,19,11,20
1090,1925974188.66936,0.0, 1,23,10,1885352.25001903, 2, 7,10
1101,0.0,0.0, 1, 1,10,0.0, 1, 1,10
1122,1879330595.50213,0.0, 1,23,10,1862203.84815204, 2, 7,10
1133,0.0,0.0, 1, 1,10,0.0, 1, 1,10
1154,796638822.728009,0.0, 1,23,10,1323041.85215286, 9, 7,10
1165,0.0,0.0, 1, 1,10,0.0, 1, 1,10
1186,580791718.213434,0.0, 1, 1,10,3434419.65905369,16, 7,10
1197,0.0,0.0, 1, 1,10,0.0, 1, 1,10
1218,1846419484.14036,0.0, 1,10,60,2265529.66675615, 2, 7,10
1229,2151896.29776155,0.0, 1, 1,10,201283.632912254,19,11,20
1250,2364391050.47128,0.0, 1,23,10,2362426.45892735, 2, 7,10
1261,0.0,0.0, 1, 1,10,0.0, 1, 1,10
1282,2315846319.14385,0.0, 1,23,10,2340003.85834617, 2, 7,10
1293,0.0,0.0, 1, 1,10,0.0, 1, 1,10
1314,964483246.401057,0.0, 1,23,10,1668279.54547586, 9, 7,10
1325,0.0,0.0, 1, 1,10,0.0, 1, 1,10
1346,2166039966.68648,0.0, 1,23,10,6263986.02526048,30, 7,10
1357,0.0,0.0, 1, 1,10,0.0, 1, 1,10
1378,2762704192.4252,0.0, 1,23,10,3015994.46121176, 2, 7,10
1389,690356.001671112,0.0, 1, 1,10,136021.135445858,19,11,20
1410,3369833494.49783,0.0, 2,23,10,3116571.36692653, 2, 7,10
1421,0.0,0.0, 1, 1,10,0.0, 1, 1,10
1442,3321047754.57112,0.0, 2,23,10,3095118.01728819, 2, 7,10
1453,0.0,0.0, 1, 1,10,0.0, 1, 1,10
1474,1674532152.95559,0.0, 1,23,10,2282341.58479228, 2, 7,10
1485,0.0,0.0, 1, 1,10,0.0, 1, 1,10
1516,36055608264.4385,0.0, 2,23,10,50825913.2707568, 2, 7,10
1547,15489974.3234973,0.0, 1, 1,10,783078.296377017,19,11,20
4,59, 2
738,14.2453519722466,8.6051225435214, 6, 6,10,18.8900952424535,17,10,60
739,17.8462758081082,13.8464897565309, 6, 7,10,20.2799157185049,17,16,50
740,15.9316060627395,10.3020813199327, 6, 7,10,24.5725947850529,25,10,50
741,14.9077024076075,9.874066747325, 6, 5,60,19.1848210838082,20,14,20
742,15.058735613877,9.99985141273571, 6, 5,60,19.6777782058306,17,17,50
743,17.0331388334241,12.726368571658, 6, 7,10,20.2311594952193,20,21,10
744,18.177292256456,14.0770289427767, 6, 7,10,20.9219216018491,17,18,10
745,15.9560673997579,10.331579184347, 6, 7,10,23.11410390973,22,11,10
746,14.9508319274544,9.90351549517412, 6, 5,60,18.7334342296284,20,14,50
747,15.0876470804694,10.0006679466912, 6, 5,60,19.3080550400409,17,17,60
748,17.1254185393657,12.7910944337334, 6, 7,10,20.1396639920277,20,21,10
749,18.2028996862048,14.0602561284997, 6, 7,10,21.1159849397364,17,18,10
750,15.9608500363109,10.2963997534719, 6, 7,10,23.2369954223457,22,11,10
751,14.9403704138423,9.87624059304871, 6, 5,60,18.6524686155306,20,14,50
752,15.0700125270117,9.95861812978552, 6, 5,60,19.3517952273677,17,17,60
753,17.1005047216603,12.7796203728273, 6, 7,10,20.1024886600592,20,21,10
754,16.8050356685873,12.661864170887, 6, 7,10,19.8764074830543,24,18,10
755,15.2985746781328,9.64870822727029, 6, 7,10,22.5733438559927,22,11,10
756,14.4042005018323,9.27614287201478, 6, 5,60,18.2418002264871,20,14,50
757,14.5115747561492,9.34085387766573, 6, 6,10,18.7936713995393,17,17,60
758,16.3365552673552,12.0386646742586, 6, 7,10,19.4738548332707,20,21,50
759,18.5953976583951,15.5999999999999, 4, 3,10,21.4167742044724,21, 7,10
760,19.0773058162813,15.6, 5,23,30,22.0662414739558,22, 7,10
761,18.7992047562515,15.5999999999999,28, 5,30,24.0000000000001,25,11,30
762,18.591877331322,15.5999999999999, 6, 3,20,21.1899590545244,23, 7,10
763,18.5979099197062,15.5999999999999, 6, 1,10,21.2368830841763,21, 7,10
764,18.9030954135763,15.6,10, 5,10,21.8930085093309,18, 7,10
765,19.3544638526062,15.6, 6, 4,50,22.7108095645601,17,17,60
766,18.7264064656341,15.5999999999999, 6, 6,60,23.9999999999998,22,11,40
767,18.5966953691415,15.5999999999999, 8, 1,50,21.2804332750836,23, 7,10
768,18.6025924330474,15.5999999999999,27, 4,50,21.3281869314709,21, 7,10
769,18.9671160109545,15.6, 6, 3,60,21.7876174738673,18, 7,10
770,19.5087679745696,15.6, 6, 1,20,23.37512384723,17,17,60
771,18.7378772120015,15.5999999999999, 7, 6,40,24.,22,11,50
772,18.5979909035429,15.5999999999999, 9, 2,30,21.3111863442938,24, 7,10
773,18.6034544487054,15.5999999999999,15, 2,60,21.348063977261,21, 7,10
774,18.961945036,15.6, 6, 1,30,21.8314408023414,18, 7,10
775,18.9145773752752,15.6, 5,22,20,22.4775670973455,24,17,60
776,18.6602016327127,15.5999999999999, 3, 2,30,23.9999999757691,22,11,20
777,18.5883626023619,15.5999999999999, 5, 1,10,21.2538407930087,24, 7,10
778,18.5915853895116,15.5999999999999, 5, 1,10,21.2628656014399,24, 7,10
779,18.7750516993303,15.5999999999999, 6, 6,60,21.7864991192774,21, 7,10
814,33244043889.5824,0.0, 1,23,10,51268042.7228659, 6, 7,10
824,2639788564.14182,0.0, 1,23,10,2984238.29348068, 6, 7,10
835,11641237.5216011,0.0, 1, 1,10,572352.92235963,22,11,10
845,0.0,0.0, 1, 1,10,0.0, 1, 1,10
866,294476359.344372,0.0, 1, 1,10,911078.497922071, 6, 7,10
877,0.0,0.0, 1, 1,10,0.0, 1, 1,10
898,1027524474.71714,0.0, 1,10,50,1475635.18122355, 6, 7,10
909,10004519.4014343,0.0, 1, 1,10,319420.556931735,22,10,60
930,1414959718.65405,0.0, 1,23,10,1539003.65922411, 6, 7,10
941,0.0,0.0, 1, 1,10,0.0, 1, 1,10
962,1350374592.62832,0.0, 1,23,10,1526500.21749919, 6, 7,10
973,0.0,0.0, 1, 1,10,0.0, 1, 1,10
994,559401026.214861,0.0, 1, 1,10,1076405.65852977, 6, 7,10
1005,0.0,0.0, 1, 1,10,0.0, 1, 1,10
1026,372453253.807299,0.0, 1, 1,10,1999720.74780139, 6, 7,10
1037,0.0,0.0, 1, 1,10,0.0, 1, 1,10
1058,1292941566.44708,0.0, 1,11,20,1971208.4499783, 6, 7,10
1069,453523.445193329,0.0, 1, 1,10,87220.6148035361,22,11,10
1090,1819380443.72384,0.0, 1,23,10,2053803.416581, 6, 7,10
1101,0.0,0.0, 1, 1,10,0.0, 1, 1,10
1122,1741293416.42807,0.0, 1,23,10,2043148.76498465, 6, 7,10
1133,0.0,0.0, 1, 1,10,0.0, 1, 1,10
1154,695928811.638039,0.0, 1, 1,10,1435853.91213952, 6, 7,10
1165,0.0,0.0, 1, 1,10,0.0, 1, 1,10
1186,565796246.263131,0.0, 1, 1,10,3592934.57079167, 6, 7,10
1197,0.0,0.0, 1, 1,10,0.0, 1, 1,10
1218,1591116939.08153,0.0, 1,11,10,2483056.57625621, 6, 7,10
1229,1092355.12228989,0.0, 1, 1,10,142069.528017823,22,11,10
1250,2247084253.89952,0.0, 1,23,10,2580454.36252011, 6, 7,10
1261,0.0,0.0, 1, 1,10,0.0, 1, 1,10
1282,2157780797.22241,0.0, 1,23,10,2576005.08899651, 6, 7,10
1293,0.0,0.0, 1, 1,10,0.0, 1, 1,10
1314,856514933.186439,0.0, 1, 1,10,1811359.76380848, 6, 7,10
1325,0.0,0.0, 1, 1,10,0.0, 1, 1,10
1346,2225447706.60147,0.0, 1, 1,10,6808791.08024597, 6, 7,10
1357,0.0,0.0, 1, 1,10,0.0, 1, 1,10
1378,2461987972.09199,0.0, 1,23,10,3239573.14227047, 6, 7,10
1389,90839.5526835335,0.0, 1, 1,10,38090.9783416241,22,11,10
1410,3238237989.91631,0.0, 1,23,10,3344532.59283407, 6, 7,10
1421,0.0,0.0, 1, 1,10,0.0, 1, 1,10
1442,3141503927.94257,0.0, 1,23,10,3344597.83211435, 6, 7,10
1453,0.0,0.0, 1, 1,10,0.0, 1, 1,10
1474,1550050895.63209,0.0, 1, 1,10,2470140.91366382, 6, 7,10
1485,0.0,0.0, 1, 1,10,0.0, 1, 1,10
1516,33331306043.4933,0.0, 1,23,10,55366126.9818453, 6, 7,10
1547,11636449.5221253,0.0, 1, 1,10,572350.744941048,22,11,10
4,90, 3
738,16.3378573523316,11.2633575735782,17, 7,10,23.7844761632791,27,17,60
739,18.8534649015218,14.5732775847465,20, 7,10,22.9515648616739,28,18,30
740,17.5920051005096,12.2927806222487,17, 7,10,26.5406093759545, 1,10,60
741,16.6072988301565,12.1232711194899,23, 6,50,22.8357478023907,27,17,10
742,17.0140729217368,12.2752390545801,17, 6,60,26.174974999001,27,18,10
743,18.2997854498001,13.8293915097328,17, 7,10,22.9067948176246,28,19,10
744,19.3010626311415,14.7220580083548,20, 7,10,23.0011336499702,28,18,60
745,17.7110061160386,12.5085418634063,20, 6,60,25.2829191454979, 1,10,60
746,16.6774328188728,12.236613702309,13, 6,60,22.2483529572571,27,17,30
747,17.0843121861915,12.3836724722518,13, 6,60,25.2032560354408,27,18,20
748,18.4397969596798,14.2541335401242,13, 7,10,22.7979738137715,28,19,10
749,19.3583393748875,14.6872988326502,20, 7,10,22.9179727203739,28,18,60
750,17.7351620827808,12.4733444834856,20, 6,60,25.4284782606146, 1,10,60
751,16.6715643791733,12.2130647341893,13, 6,60,22.2081401375246,27,17,30
752,17.0833791544463,12.3443691873509,13, 6,60,25.2269536575988,27,18,20
753,18.4128847293145,14.2169866976628,13, 7,10,22.725466667646,28,19,10
754,18.0368818165661,13.6831880244895,20, 7,10,22.1490961614771,28,18,60
755,17.0591649068783,11.9959061568238,20, 6,60,24.9617532148239, 1,10,60
756,16.1291360296921,11.7200237711919,23, 6,50,21.9071691128999,27,17,40
757,16.4818027125906,11.853289700791,13, 6,60,24.9888649012769,27,18,20
758,17.6081617299635,13.6079774889248,13, 7,10,21.9354047243503,28,19,10
759,18.9058901742937,15.5999999999999,17,24,50,24.,27,18,50
760,19.7304775041746,15.6, 6, 3,50,23.9729574407879,28,17,60
761,19.2887553567124,15.5999999999999, 5,20,30,24.0000000000002, 1,11,10
762,18.8630097650067,15.5999999999999, 9, 4,50,24.,27,17,50
763,19.0085640394969,15.5999999999999,10, 1,60,24.0000000000001,27,18,50
764,19.5431109617038,15.6, 6, 4,60,23.9999999999945,28,18,60
765,20.2878745606542,15.6,13, 4,60,24.,28,15,60
766,19.324177533783,15.5999999999999,23, 6,50,24.0000000000001, 1,11,10
767,18.8872917058417,15.5999999999999, 6, 2,50,23.8835097008931,27,17,30
768,19.0306416782575,15.5999999999999, 5,24,40,24.0000000000001,27,18,30
769,19.6756358116615,15.6, 6, 5,60,24.,28,18,20
770,20.5140608590834,15.6, 5,24,20,24.0000000000001,28,15,40
771,19.3538301560912,15.5999999999999,17, 4,60,24.0000000000001,29,11,10
772,18.8967023258306,15.5999999999999,31, 4,60,23.9563902011294,27,17,30
773,19.044878696588,15.5999999999999, 6, 5,30,24.0000000000001,27,18,30
774,19.6753310634536,15.6, 5,23,60,24.,28,18,40
775,19.6576558559555,15.6, 6, 6,40,24.,28,16,60
776,19.1413518009387,15.5999999999999,26, 5,30,24.0000000000001, 1,11,10
777,18.8022336408869,15.5999999999999, 6, 5,20,23.7263751443099,27,17,40
778,18.9052524359531,15.5999999999999,18, 2,20,24.0000000000001,27,18,40
779,19.2640375814936,15.5999999999999,19,11,60,23.5050541905166,28,17,60
814,17287513116.493,0.0, 1,23,10,40135760.1537904,13, 7,10
824,1385758260.42002,0.0, 1, 9,50,2267891.43925994,17, 7,10
835,210815043.221123,0.0, 1, 1,10,1795558.27363343,27,17,60
845,1994602.43232008,0.0, 1, 1,10,203300.281747893,27,17,60
866,166315837.017406,0.0, 1, 1,10,791591.176284773,20, 7,10
877,0.0,0.0, 1, 1,10,0.0, 1, 1,10
898,560621392.69316,0.0, 1, 8,60,1126604.67910375,17, 7,10
909,43444246.6434038,0.0, 1, 1,10,473709.542026118, 1,10,60
930,784545064.535908,0.0, 1,11,40,1156284.26282477,23, 7,10
941,150380.762873841,0.0, 1, 1,10,22093.4325324895,27,17,20
962,676267774.143076,0.0, 1,12,40,1130409.04608154,17, 7,10
973,8577403.245192,0.0, 1, 1,10,354133.915420441,27,17,60
994,290100026.551095,0.0, 1, 1,10,872900.131242993,17, 7,10
1005,33406.2484687286,0.0, 1, 1,10,11187.7184636561,28,17,60
1026,190384393.046202,0.0, 1, 1,10,1789633.53010263,20, 7,10
1037,6666893.96683903,0.0, 1, 1,10,141829.807869582,28,17,60
1058,659321410.099312,0.0, 1, 9,10,1482139.40760395,20, 7,10
1069,26341048.7333702,0.0, 1, 1,10,324848.190027627, 1,10,60
1090,971155994.930061,0.0, 1,12,10,1539244.29084591,13, 7,10
1101,0.0,0.0, 1, 1,10,0.0, 1, 1,10
1122,829750274.984454,0.0, 1,13,40,1504344.31318969,13, 7,10
1133,4406184.42786692,0.0, 1, 1,10,285042.183751709,27,17,60
1154,337950573.940923,0.0, 1, 1,10,1091818.57520939,13, 7,10
1165,183325.662667272,0.0, 1, 1,10,30597.4676223992,28,17,60
1186,289047513.168431,0.0, 1, 1,10,3277046.87664713,20, 7,10
1197,31696344.8624474,0.0, 1, 1,10,372978.975909222,28,17,60
1218,801944928.899193,0.0, 1, 9,10,1874128.77415586,20, 7,10
1229,40637714.1417708,0.0, 1, 1,10,439537.362906517, 1,10,60
1250,1187497561.99121,0.0, 1,12,10,1941568.64469404,13, 7,10
1261,0.0,0.0, 1, 1,10,0.0, 1, 1,10
1282,1014357710.43891,0.0, 1,12,50,1904340.63223944,13, 7,10
1293,6473684.45149498,0.0, 1, 1,10,373865.65299308,27,17,60
1314,408918305.125466,0.0, 1, 1,10,1393404.47074747,13, 7,10
1325,320643.718583709,0.0, 1, 1,10,45185.1018923059,28,17,60
1346,1072320659.41995,0.0, 1, 1,10,6028160.74481513,20, 7,10
1357,10893838.1400286,0.0, 1, 1,10,371827.879857424,28,17,60
1378,1335260100.06755,0.0, 1, 9,10,2440841.31240136,20, 7,10
1389,24479237.2360541,0.0, 1, 1,10,469467.389867843, 1,10,60
1410,1847249651.4042,0.0, 1,12,60,2539218.45318654,23, 7,10
1421,0.0,0.0, 1, 1,10,0.0, 1, 1,10
1442,1631407837.35785,0.0, 1,14,10,2480579.6333707,13, 7,10
1453,4516088.54774176,0.0, 1, 1,10,422410.346180757,27,17,60
1474,847337846.258612,0.0, 1, 1,10,1920789.18838142,13, 7,10
1485,0.0,0.0, 1, 1,10,0.0, 1, 1,10
1516,17368845262.3871,0.0, 1,23,10,44137513.3802461,13, 7,10
1547,228410253.267793,0.0, 1, 1,10,2402752.78673647,27,17,60
4,120, 4
738,18.8815184768344,12.4649253729237, 2, 6,40,26.831697893144, 9,17,50
739,20.4812797119869,14.8587339276393, 3, 7,10,24.8728589802597, 9,19,20
740,19.754258936564,13.1463165773254, 2, 6,40,27.3743869358884,28, 9,60
741,18.9101381104885,12.9659726109021, 3, 6,40,26.0881873352732, 8,14,10
742,19.3613105147575,13.1645987346123, 2, 6,40,29.1551881362686, 9,17,60
743,20.0278314665794,14.37327413709, 2, 8,10,25.2752350571384, 8,21,40
744,20.8658166238666,15.022715524644, 3, 7,10,24.6701285143427, 8,16,50
745,19.9239023932358,13.2595925147439, 3, 6,40,26.9529570907602,28, 9,60
746,19.0086095685976,13.03110169343, 3, 6,40,25.8162632910214, 8,14,30
747,19.493169034719,13.3538695008976, 3, 6,40,28.1106999422456, 9,17,60
748,20.177553866808,14.5902081902137, 2,10,30,25.1325436050768, 8,21,50
749,20.8143538878871,14.9570979784009, 3, 6,60,24.3816233050316, 8,17,10
750,19.9105512662566,13.2185394559449, 3, 6,40,27.0749735655684,28, 9,60
751,18.9523676530046,12.9967780178703, 3, 6,40,25.6829468925778, 8,14,30
752,19.4504181213289,13.3063094340589, 3, 6,40,27.9051163637054, 9,18,10
753,20.0878425943124,14.5953755616901, 2,10,50,24.8990238307804, 8,21,50
754,19.5187782498947,13.95665775748, 3, 7,10,23.5861181569056, 8,17,40
755,19.1338616989512,12.7139943204827, 3, 6,40,26.3574925334112,28, 9,60
756,18.2536111951929,12.5256148389922, 3, 6,40,25.2232117548465, 8,14,30
757,18.7041395567624,12.7734163655418, 3, 6,40,27.0029177126584, 7,17,60
758,19.1678302104394,13.9396120752117, 2,10,40,24.123978495378, 8,20,30
759,20.0763337800607,15.5999999999999, 1, 6,30,26.7, 9,18,20
760,21.0329042448703,15.6, 3, 6,50,24.9294196806669, 9,19,30
761,20.4899562011712,15.5999999999999,21, 3,50,26.6999999999774, 9,10,10
762,19.9596798503963,15.5999999999999, 1, 4,40,25.2986445292875, 9,15,30
763,20.235484984808,15.5999999999999,22, 6,10,26.7000000000001, 9,18,10
764,20.8247669711031,15.6, 2, 4,30,25.3043025639144, 8,21,20
765,21.5526176455689,15.6, 3, 1,30,24.5386649996363, 7,23,60
766,20.6149489080058,15.5999999999999,21, 4,60,25.9279813336787, 9, 9,60
767,20.0577201416136,15.5999999999999,21, 6,20,24.7605808793591, 9,15,20
768,20.3715417230447,15.5999999999999,21, 5,10,26.7, 9,18,30
769,20.9905335873113,15.6, 2, 8,10,25.1596885544034, 8,21,30
770,21.6545784369741,15.6, 3, 3,40,24.4519287242751, 7,23,60
771,20.6155721242714,15.6,21, 5,50,25.9565301430171, 9, 9,60
772,20.0378657394301,15.5999999999999,21, 6,10,24.4698143844678, 9,15,20
773,20.3583619627532,15.5999999999999,22, 6,50,26.7, 9,18,50
774,20.9483317222953,15.6, 2,11,20,24.9352933449809, 8,21,30
775,20.7648018345377,15.6, 3, 5,40,24.0000000000001,26,17,20
776,20.1875935485779,15.5999999999999, 2,22,40,24.7218111429479, 9, 9,60
777,19.6796797461114,15.5999999999999,22, 3,20,24.0000000000001,10,15,60
778,19.9576150613699,15.5999999999999,21, 5,40,26.7, 9,18,40
779,20.2953577897778,15.6, 3, 5,20,24.3571319780731, 7,23,40
814,6896509575.89461,0.0, 1,19,10,35073860.5300779, 3, 7,10
824,571056865.657177,0.0, 1,19,10,1818901.52597229,22, 7,10
835,2297895019.52285,0.0, 1, 1,10,8887200.65833864, 7,17,60
845,138103318.323913,0.0, 1, 1,10,595498.762351867, 7,17,40
866,73587322.7660801,0.0, 1, 1,10,736236.102779057, 3, 7,10
877,26185086.8170388,0.0, 1, 1,10,108517.374210043, 7,17,60
898,238197331.073313,0.0, 1,19,10,885765.071459651,22, 7,10
909,122021742.386724,0.0, 1, 1,10,506528.58365899,28, 9,50
930,298548579.81333,0.0, 1,19,10,941002.714672182, 3, 7,10
941,50484733.5114417,0.0, 1, 1,10,251367.354345526, 7,15,20
962,269498125.627945,0.0, 1,19,10,964907.019647907, 3, 7,10
973,97348413.895501,0.0, 1, 1,10,565341.136488029,10,17,50
994,128963918.968958,0.0, 1, 1,10,737903.02015663, 3, 7,10
1005,31083138.5863512,0.0, 1, 1,10,123753.334069556, 7,17,60
1026,81339034.9464253,0.0, 1, 1,10,1663616.30585656, 3, 7,10
1037,119372753.262179,0.0, 1, 1,10,324940.114472634, 7,17,60
1058,271623875.20685,0.0, 1, 1,10,1106651.04836562,22, 7,10
1069,153831198.271454,0.0, 1, 1,10,543349.836066572,28, 9,60
1090,349204383.638121,0.0, 1, 1,10,1258587.63549965, 3, 7,10
1101,63773011.6830643,0.0, 1, 1,10,305882.894793594, 7,15,30
1122,308418855.224166,0.0, 1, 1,10,1284106.92656857, 3, 7,10
1133,106014189.871371,0.0, 1, 1,10,597237.074738645, 7,17,60
1154,140880632.020868,0.0, 1, 1,10,994370.718627455, 3, 7,10
1165,46610498.0762637,0.0, 1, 1,10,170398.466173624,10,17,60
1186,119803361.010692,0.0, 1, 1,10,3125968.15534203, 3, 7,10